4
Lattice="20.0 0.0 0.0 0.0 20.0 0.0 0.0 0.0 20.0" Properties=species:S:1:pos:R:3:forces:R:3 class=3 scale=1.0625018098857693 fps_idx=-1 name=3709 energy=-274.79272153 stress="0.08617869478775508 -0.004215009701382356 0.001135424132635053 -0.004215009701382356 0.08703453676060532 -5.7091083974454166e-05 0.001135424132635053 -5.7091083974454166e-05 0.08197792821019799" free_energy=-274.80386702 pbc="T T T"
Sc       0.0       0.0       0.0       1.84954700      -0.60305200       0.01523300
Nb       3.0       0.0       0.0       0.02211900       1.29882200       0.92695800
Nb       0.0       4.0       0.0      -0.77269800       0.31461400       0.20306300
Nb       0.0       0.0       5.0       0.33117200       0.32551100       0.14628400
4
Lattice="20.0 0.0 0.0 0.0 20.0 0.0 0.0 0.0 20.0" Properties=species:S:1:pos:R:3:forces:R:3 class=3 scale=1.0625018098857693 fps_idx=-1 name=3709 energy=-274.79272153 stress="0.08617869478775508 -0.004215009701382356 0.001135424132635053 -0.004215009701382356 0.08703453676060532 -5.7091083974454166e-05 0.001135424132635053 -5.7091083974454166e-05 0.08197792821019799" free_energy=-274.80386702 pbc="T T T"
Sc       0.0       0.0       0.0       1.84954700      -0.60305200       0.01523300
Nb       1.0       0.0       0.0       0.02211900       1.29882200       0.92695800
Nb      -1.0       0.0       0.0      -0.77269800       0.31461400       0.20306300
Nb       0.0       0.0       1.0       0.33117200       0.32551100       0.14628400
36
Lattice="10.684835525 0.0 0.0 0.0 10.684835525 0.0 0.0 0.0 7.123223683" Properties=species:S:1:pos:R:3:forces:R:3 class=3 scale=1.0625018098857693 fps_idx=-1 name=3709 energy=-274.79272153 stress="0.08617869478775508 -0.004215009701382356 0.001135424132635053 -0.004215009701382356 0.08703453676060532 -5.7091083974454166e-05 0.001135424132635053 -5.7091083974454166e-05 0.08197792821019799" free_energy=-274.80386702 pbc="T T T"
Sc       8.90403000       5.34242000       5.34242000       1.84954700      -0.60305200       0.01523300
Sc       1.78081000       5.34242000       1.78081000      -0.49242500      -0.74499900      -0.27740800
Sc       3.56161000       7.12322000       3.56161000       1.15562000      -0.00043800      -0.06187800
Sc       0.00000000       0.00000000       3.56161000      -0.85511700       0.01901000      -0.67265000
Sc       8.90403000       1.78081000       5.34242000      -0.27434500       0.20867500      -0.03951900
Sc       0.00000000       0.00000000       0.00000000      -1.18264700      -0.54330300       0.62220800
Sc       3.56161000       0.00000000       3.56161000       1.25239000      -1.18703600      -0.40478100
V        3.56161000       7.12322000       0.00000000       1.31412200      -0.52462800      -0.15144200
V        8.90403000       5.34242000       1.78081000       1.06924400      -0.60758500       0.26851100
V        5.34242000       8.90403000       5.34242000       0.22253700       0.72659900       0.34632000
V        0.00000000       7.12322000       0.00000000      -0.55686700      -0.08970400       0.17212400
V        7.12322000       0.00000000       0.00000000       0.48191100      -1.30941400       0.48553700
V        5.34242000       5.34242000       1.78081000      -0.39142100      -0.80700800      -0.70213500
Cr       7.12322000       0.00000000       3.56161000       0.01381200      -1.05781000      -0.46442800
Cr       0.00000000       7.12322000       3.56161000      -0.45647900      -0.34033600      -0.09011900
Cr       5.34242000       8.90403000       1.78081000       0.10052000       0.58999000      -0.24462500
Cr       0.00000000       3.56161000       3.56161000      -0.23056400       0.13935000      -0.52112400
Cu       3.56161000       3.56161000       3.56161000      -0.00713800       0.27627400      -0.08896200
Cu       3.56161000       0.00000000       0.00000000       0.01210400      -0.33924500       0.13192400
Cu       0.00000000       3.56161000       0.00000000      -0.18990800       0.01517500       0.19734500
Y        7.12322000       7.12322000       0.00000000      -0.72846500       0.33287000       1.25593600
Y        1.78081000       8.90403000       5.34242000       0.03014400      -1.22317300       0.72989600
Y        1.78081000       8.90403000       1.78081000      -0.05851900      -0.36160900      -0.71290700
Y        1.78081000       1.78081000       5.34242000       0.32779200       1.96897500       0.33679600
Y        5.34242000       1.78081000       5.34242000      -0.21380300      -0.15575200       0.75537500
Y        7.12322000       7.12322000       3.56161000      -0.58523000       0.43246900      -1.23375900
Y        5.34242000       1.78081000       1.78081000      -0.31247600      -0.10155400      -0.65566900
Nb       7.12322000       3.56161000       0.00000000       0.02211900       1.29882200       0.92695800
Nb       1.78081000       5.34242000       5.34242000      -0.77269800       0.31461400       0.20306300
Nb       8.90403000       8.90403000       1.78081000       0.33117200       0.32551100       0.14628400
Hf       5.34242000       5.34242000       5.34242000      -1.57041900      -1.08461800       0.84930100
Hf       7.12322000       3.56161000       3.56161000       0.75825900       1.23749500      -0.92562000
Hf       8.90403000       1.78081000       1.78081000      -0.17586500       0.38581400       0.05539300
Hf       1.78081000       1.78081000       1.78081000      -0.00032300       1.64333700      -0.13970500
Hf       8.90403000       8.90403000       5.34242000       0.26984900       0.53720200      -0.20491000
Pt       3.56161000       3.56161000       0.00000000      -0.15643700       0.62908400       0.09343600
36
Lattice="9.635884875 0.0 0.0 0.0 9.635884875 0.0 0.0 0.0 6.42392325" Properties=species:S:1:pos:R:3:forces:R:3 class=3 scale=0.9434298026410756 fps_idx=-1 name=2996 energy=-286.87287766 stress="-0.09254085228504165 0.0024403551701108433 -0.006314228948708925 0.0024403551701108433 -0.09549506465997734 0.006802726901955303 -0.006314228948708925 0.006802726901955303 -0.09694182775082971" free_energy=-286.87390508 pbc="T T T"
Sc       0.02921000       3.07534000       3.30779000       0.35901200       2.64848100      -1.17640100
Sc       4.85256000       1.64607000       1.60982000      -2.32323000      -0.19597400      -1.69855600
Sc       0.08519000       6.27742000       6.41241000       0.13125800       1.30246100      -0.06136400
Sc       8.04074000       8.08267000       1.57201000      -0.17883000      -0.39156300      -0.89605200
Sc       4.89356000       4.93023000       4.84477000      -2.50677700      -3.40979100      -0.03795700
Sc       6.49174000       0.08619000       3.26806000      -0.68763900      -1.05644400       0.01069600
Sc       1.69208000       8.06353000       4.75564000       1.52226400       0.64117800      -0.79877100
Sc       7.99604000       1.57451000       1.65486000      -1.07168300       0.59373800      -2.22462900
Sc       4.83462000       1.44380000       4.84776000      -2.73325400       1.13088300       1.00102800
Sc       9.53357000       0.07041000       3.12542000       1.38976400      -1.61965900      -0.06207900
Sc       3.12921000       6.48182000       0.02447000      -1.36169400      -0.53665100      -0.03391100
Sc       1.57723000       4.85359000       1.60382000       2.08439900      -0.59142800       0.60903000
Co       3.17493000       6.45886000       3.26211000       0.18155600      -0.32115400      -0.21299300
Co       1.51310000       5.00263000       4.75398000       0.82406900      -0.77435300      -0.27676800
Co       6.47202000       3.22036000       0.02547000       0.03286900       0.27779900       0.14938100
Co       3.21609000       3.38336000       6.36089000      -0.19411100      -0.05843600       0.37146400
Co       3.25525000       0.11780000       3.09212000      -0.47316600      -0.22661100      -0.18194700
Co       3.23903000       9.50952000       0.20074000      -0.09490600      -0.11672600      -0.35531800
Co       1.68911000       7.99308000       1.49061000      -0.21061600       0.11067300       0.39802700
Zr       0.09797000       0.15428000       6.38258000       0.19629500      -2.62187900       0.81038500
Zr       1.42935000       1.64884000       4.78282000       5.08297200      -0.42159700      -0.67851500
Zr       4.87702000       7.85368000       4.88279000      -2.33524600       2.82148000      -1.68347500
Zr       0.05230000       3.19811000       6.40585000      -0.10496600       2.39935600       0.16638200
Zr       8.19241000       4.81908000       4.73051000      -1.22868000      -1.08007200       0.97149900
Zr       4.89754000       4.94110000       1.69964000      -2.24906500      -2.61724200      -0.33636600
Zr       6.44153000       3.06623000       3.13056000       0.30210300       1.80915000       0.44235900
Zr       0.04720000       6.37272000       3.11469000       1.26009500       0.82548700      -0.07187300
Zr       1.55134000       1.72151000       1.48906000       4.53941500      -1.14875400       1.00802700
Zr       6.33364000       6.39266000       6.39151000       2.11250700      -0.33827800       1.11585600
Zr       4.80528000       7.88029000       1.66955000      -2.10128600       2.79408900       1.04210700
Zr       8.04114000       1.70927000       4.91119000      -2.67768800      -0.32941700       1.54041300
Zr       7.96040000       8.02735000       4.86003000       0.43958700       0.76381200       0.29915000
Zr       6.53648000       6.25756000       3.28220000       1.16587500       0.36679100      -1.06470800
W        6.25718000       9.54549000       6.42115000       1.32460200      -0.11885800       0.59104000
W        3.08815000       3.30210000       3.20604000      -0.19788700       0.39967900       1.14255700
W        7.98093000       4.72271000       1.48848000      -0.21792000      -0.91017100       0.18228000
