5
Properties=species:S:1:pos:R:3:forces:R:3 energy=-39.980966533717975 pbc="F F F"
C        0.00000000       0.00000000       0.00000000       0.08684024      -0.02105959      -0.04317731
H        1.19577180       0.69582632      -1.53777680      -0.03373476      -0.01442360       0.03959538
H       -0.07590599       1.04620262       1.95058034      -0.05975229       0.04679312      -0.01366192
H       -1.10813614       1.91728119       1.81155538       0.06237026      -0.05000995       0.00846041
H        1.39764218      -0.98903322      -0.05350022      -0.05572187       0.03869900       0.00878862
5
Properties=species:S:1:pos:R:3:forces:R:3 energy=-40.00215330819545 pbc="F F F"
C        0.00000000       0.00000000       0.00000000      -0.03581802      -0.00420251      -0.00715774
H        0.83552005      -1.71310156      -0.76561295      -0.02522427       0.05106136       0.01209057
H        0.90331127       1.46854740      -0.17934739      -0.04816886      -0.06129081       0.00255791
H       -1.61007917       0.51011817      -0.93935798       0.03800681      -0.01462905       0.01424250
H       -1.56022970      -0.37013976       0.43731466       0.07119975       0.02906308      -0.02173035
5
Properties=species:S:1:pos:R:3:forces:R:3 energy=-40.162633179637886 pbc="F F F"
C        0.00000000       0.00000000       0.00000000       0.03954604      -0.03785495       0.12845920
H        0.33288508      -1.08396555      -0.33006698      -0.00597917       0.01901968       0.00171141
H       -0.52434359      -0.04295474       1.36170755       0.00401968      -0.02081200      -0.05300654
H        1.20464456       0.16802618       1.02280294      -0.04225164      -0.00621005      -0.05479458
H       -0.38619114      -1.53322282       1.44968548       0.00466503       0.04585622      -0.02236699
5
Properties=species:S:1:pos:R:3:forces:R:3 energy=-40.05741178712736 pbc="F F F"
C        0.00000000       0.00000000       0.00000000      -0.02020558       0.00578527      -0.01205522
H       -0.25533345       0.26890487      -1.31976496      -0.00774637      -0.00887173       0.05818907
H       -1.45622423      -0.03142839       1.57228308       0.02139532       0.00354455      -0.04152617
H        1.97882333      -0.14931434      -1.32483353      -0.06694156       0.01991136      -0.12786000
H        2.29068308      -0.23670765      -0.78375890       0.07350032      -0.02037076       0.12325628
5
Properties=species:S:1:pos:R:3:forces:R:3 energy=-39.97640753252454 pbc="F F F"
C        0.00000000       0.00000000       0.00000000      -0.00325596       0.01078149      -0.00704364
H        0.61492280       2.12382743      -0.44390551      -0.00323661      -0.04016751       0.01469093
H        0.94230647      -0.55907117      -0.91319516      -0.01184942       0.00590776      -0.00091958
H       -0.29689992      -1.59499865       1.89547746       0.01245512       0.02264775      -0.02281180
H        1.24818158      -0.79932018      -0.14437201       0.00588517       0.00083060       0.01608475
5
Properties=species:S:1:pos:R:3:forces:R:3 energy=-39.85813464001072 pbc="F F F"
C        0.00000000       0.00000000       0.00000000       0.05947598       0.00017917      -0.00399024
H        0.00478340       0.20799794      -2.17271599       0.03568862      -0.02427688       0.03032011
H        1.03252523       2.04828885       1.37609677      -0.01076123      -0.02116640      -0.01804469
H        1.93290069      -0.73743077       0.60307504      -0.04339384       0.01499643      -0.01928659
H        1.39059394      -0.77364258      -1.90340992      -0.04100791       0.03026594       0.01100149
5
Properties=species:S:1:pos:R:3:forces:R:3 energy=-39.91113795869916 pbc="F F F"
C        0.00000000       0.00000000       0.00000000       0.00379752       0.02841689       0.01028278
H        1.15150902      -0.50437203       0.33500192      -0.04816696       0.02183275      -0.04199307
H        1.01358629       2.38118667      -1.38787957      -0.00622956      -0.01677267       0.01108383
H       -1.22217880       0.53499741      -1.16315791       0.06269059      -0.02095481       0.03518304
H        1.31964053       2.13066941       1.56447840      -0.01209401      -0.01251840      -0.01455684
5
Properties=species:S:1:pos:R:3:forces:R:3 energy=-40.07530319624516 pbc="F F F"
C        0.00000000       0.00000000       0.00000000      -0.00309198       0.01652409      -0.00883107
H       -0.74620190      -1.50398495      -0.16584106       0.02592362       0.08171406       0.01524411
H        0.51071624       0.22420657      -0.95004842       0.01128867      -0.01833120      -0.01352266
H       -0.27563009       0.56074874      -2.92642413      -0.00203760      -0.00123582       0.01611238
H        0.16216762       1.40732628       0.47123988      -0.03208501      -0.07866851      -0.00900092
5
Properties=species:S:1:pos:R:3:forces:R:3 energy=-39.96913117210104 pbc="F F F"
C        0.00000000       0.00000000       0.00000000      -0.03707154      -0.02664730       0.00716224
H        2.73631496       0.76186014      -0.76382753      -0.03091641      -0.02125968      -0.01498490
H        1.35241706      -0.54501910      -1.81960708       0.01109644       0.01591445       0.01811511
H       -1.41680996       0.62573178      -0.08751954       0.05945733      -0.03608312      -0.01093340
H       -0.04359108      -1.51888903      -0.28714299      -0.00256984       0.06808033       0.00064471
5
Properties=species:S:1:pos:R:3:forces:R:3 energy=-39.77064845719067 pbc="F F F"
C        0.00000000       0.00000000       0.00000000      -0.58922365       0.24223399      -0.80727130
H       -1.23382270       2.25514405      -0.07135827       0.02239964      -0.02081939       0.00011026
H       -1.74682537       0.26302739       0.93841018       0.05539032      -0.01925031      -0.03968973
H        0.78575049      -0.34925518      -1.48082340      -0.05008227       0.01964200       0.07249128
H        0.39798731      -0.17113955       0.55170301       0.56152063      -0.22179756       0.77435051
5
Properties=species:S:1:pos:R:3:forces:R:3 energy=-39.93810169487282 pbc="F F F"
C        0.00000000       0.00000000       0.00000000      -0.04048397      -0.01774024      -0.02826727
H        1.07279495       0.57664469       0.99085757       0.03217453      -0.01140704      -0.02698178
H       -1.55684426       0.31082294      -0.66879344       0.06093505       0.00187894       0.02437072
H        2.45972278       0.45532303       0.85079123      -0.04590482       0.01158495       0.00605020
H        0.77208121      -1.31735261      -2.24666911      -0.00671816       0.01568170       0.02482865
5
Properties=species:S:1:pos:R:3:forces:R:3 energy=-40.13281294262697 pbc="F F F"
C        0.00000000       0.00000000       0.00000000      -0.02510677      -0.06309882       0.06385833
H        1.20880918      -0.77230139       0.19093012      -0.06937198       0.06128717      -0.02237771
H        2.09966620       0.47196536       1.28805494      -0.02530886      -0.00222261      -0.01044652
H       -0.77837076       0.87693425      -0.46060652       0.06155328      -0.03143242       0.01839814
H       -0.95794118      -0.61310071       1.00015756       0.05823170       0.03546811      -0.04942785
5
Properties=species:S:1:pos:R:3:forces:R:3 energy=-39.84701333251446 pbc="F F F"
C        0.00000000       0.00000000       0.00000000      -0.02985367       0.00302160      -0.02016528
H       -1.27429068      -2.33264286       0.41451196       0.01393017       0.02468114      -0.00751737
H        1.15681354       1.80380074      -1.49663846       0.01951292      -0.07686220      -0.01271146
H        1.59692582       0.52207038      -1.74034180      -0.02519684       0.06850619       0.01785346
H       -1.53222965       1.34811262      -1.46123863       0.02160756      -0.01934823       0.02254030
5
Properties=species:S:1:pos:R:3:forces:R:3 energy=-39.85632767237392 pbc="F F F"
C        0.00000000       0.00000000       0.00000000       0.04671999       0.02490554       0.00901849
H        1.63997215       1.75996080       0.96354136      -0.01556347      -0.02621489      -0.01569138
H        1.22973057       0.62249793      -0.39750151      -0.03418427      -0.00532176       0.00864259
H        1.08195062       0.04703155      -2.44232393      -0.00087716      -0.00304623       0.02203227
H       -0.05972134      -1.20279701       2.41436485       0.00390629       0.00967838      -0.02399655
5
Properties=species:S:1:pos:R:3:forces:R:3 energy=-39.899405317804195 pbc="F F F"
C        0.00000000       0.00000000       0.00000000      -0.01812824      -0.04063659       0.00543032
H       -0.12026873      -2.30568520      -1.15560019      -0.00061326       0.03182242       0.01437110
H        0.67682407      -1.97390024       1.91412332      -0.00748012       0.01939342      -0.01636956
H       -2.18093782       0.16494417       0.82840138       0.04061988       0.02068258      -0.04732632
H       -1.59844824       0.60508280      -0.01424847      -0.01439576      -0.03126554       0.04389435
5
Properties=species:S:1:pos:R:3:forces:R:3 energy=-39.87557357195553 pbc="F F F"
C        0.00000000       0.00000000       0.00000000       0.09321120      -0.04963376      -0.06107646
H        1.16076660       0.11806091      -1.30850672      -0.04473639       0.00408507       0.04498657
H       -2.44612768       0.68996841       0.39155128       0.01858282       0.01966223       0.01526332
H        1.25499274      -1.23234976      -0.08803915      -0.04567532       0.03922544       0.01131149
H       -0.82910947       2.19310064       1.49934098      -0.02138536      -0.01333369      -0.01048441
5
Properties=species:S:1:pos:R:3:forces:R:3 energy=-39.885843533033594 pbc="F F F"
C        0.00000000       0.00000000       0.00000000       0.01690845       0.06843893       0.00964443
H       -0.44544672       1.57911870      -0.29607493       0.02308734      -0.05854267       0.02607556
H        1.21526961       2.01727232       0.93824207      -0.01384605      -0.02640352      -0.01055612
H        0.39182007       0.20199406      -2.86440815       0.00100261      -0.00320777       0.01991572
H        1.11580180      -0.22130733       1.62946365      -0.02714974       0.01972065      -0.04507725
5
Properties=species:S:1:pos:R:3:forces:R:3 energy=-39.982511211009474 pbc="F F F"
C        0.00000000       0.00000000       0.00000000      -0.06035420       0.02931188       0.02402176
H        1.44473195       0.98448747       0.47274366       0.05561035       0.00012422       0.01268868
H       -1.67375155      -1.37483131       1.03438576       0.02921781       0.02352759      -0.01570795
H        2.43171165       1.07224574       0.73627343      -0.06344183      -0.00520463      -0.01379567
H       -1.19704357       1.50792738       0.25409138       0.03896649      -0.04775759      -0.00720686
5
Properties=species:S:1:pos:R:3:forces:R:3 energy=-39.95823031450562 pbc="F F F"
C        0.00000000       0.00000000       0.00000000       0.04654834      -0.03490375      -0.04161397
H        0.74497614       0.04577232      -1.08107303      -0.01887122       0.01903149       0.03885663
H        0.98337527      -1.91118602      -0.54324151      -0.01922404       0.02744917      -0.02867889
H        1.69924296      -0.69295905       1.96173381      -0.01322680       0.00560609      -0.02437472
H        0.65211994      -1.16327871      -1.92362225       0.00477031      -0.01717926       0.05580946
5
Properties=species:S:1:pos:R:3:forces:R:3 energy=-39.81502427081314 pbc="F F F"
C        0.00000000       0.00000000       0.00000000      -0.01713934      -0.01631593       0.03091329
H       -2.06964842       0.40875109      -0.97983437       0.00598117      -0.02389940       0.03269793
H       -2.83124215      -0.62690236       0.45365893       0.02637549       0.01691978      -0.02126249
H       -1.07808123      -0.97067320       1.70868741       0.01207895       0.01990993      -0.03772222
H        2.59566764      -0.53870408       0.20370435      -0.02729349       0.00338813      -0.00462639
5
Properties=species:S:1:pos:R:3:forces:R:3 energy=-39.95233592480704 pbc="F F F"
C        0.00000000       0.00000000       0.00000000      -0.03542354       0.01530633      -0.03420668
H        0.35279627       0.93528928       0.84910829      -0.00680059      -0.06349852      -0.00370015
H       -2.79855144      -0.83753060       0.53513840       0.03137502      -0.00051044       0.00049767
H       -0.30172775      -1.64261099      -0.84223506       0.01193508       0.02900418       0.05634923
H       -1.05326700      -1.62344897       0.65629259      -0.00108878       0.01969999      -0.01893979
5
Properties=species:S:1:pos:R:3:forces:R:3 energy=-39.94001597273183 pbc="F F F"
C        0.00000000       0.00000000       0.00000000       0.02849480      -0.01417194       0.00650679
H       -1.86590592      -0.42648031       0.61104085       0.03772813      -0.02502390      -0.00103840
H       -0.21351805       2.11037802      -0.58551652      -0.00557711      -0.04183590       0.00596893
H        1.11906239      -1.14189588      -1.30439514      -0.03621818       0.02561969       0.02211067
H       -0.75710807      -1.18071946       0.93150506      -0.02442846       0.05541237      -0.03354963
5
Properties=species:S:1:pos:R:3:forces:R:3 energy=-40.046674363300056 pbc="F F F"
C        0.00000000       0.00000000       0.00000000       0.04344029      -0.11807280      -0.03476898
H       -0.33537262       0.94037744       0.11069597      -0.03739186       0.11124817       0.00378692
H       -0.00790263      -0.78350167       2.65227940       0.03023844      -0.00284628       0.00188656
H        0.81045896      -0.86193057       2.68682667      -0.02955509       0.00262461       0.00042173
H        0.53265846      -0.29307894      -2.62587326      -0.00673174       0.00704512       0.02867045
5
Properties=species:S:1:pos:R:3:forces:R:3 energy=-39.93809097005117 pbc="F F F"
C        0.00000000       0.00000000       0.00000000      -0.01308096       0.13029712      -0.01410795
H       -2.40615600       0.34229218       0.65707546       0.03347585      -0.00509972      -0.00461589
H        2.03447474       1.16160632       0.60919848      -0.04497700       0.00754882       0.03199899
H       -0.21132684      -0.98712357      -0.04819595      -0.01719856      -0.11174270       0.01581751
H        0.58201397       1.50376731       1.44811003       0.04178159      -0.02100381      -0.02909961
5
Properties=species:S:1:pos:R:3:forces:R:3 energy=-39.91354315161428 pbc="F F F"
C        0.00000000       0.00000000       0.00000000       0.00590758       0.06183426       0.04026786
H        1.34709757       1.83484717      -0.83697765      -0.02380167      -0.02656528       0.01560485
H       -1.98776188       1.05099920       0.67243838       0.04927572      -0.02113159       0.01353257
H       -0.91360064       0.58419003       1.34066441      -0.01276792       0.00700339      -0.04427467
H        1.18652584       1.39228036       1.67492282      -0.01861847      -0.02114259      -0.02512867
5
Properties=species:S:1:pos:R:3:forces:R:3 energy=-39.955438689116235 pbc="F F F"
C        0.00000000       0.00000000       0.00000000      -0.00295287      -0.03667722      -0.02870023
H        0.32828643       1.08517686      -1.21580401      -0.14748458       0.25728549       0.04635282
H       -2.21361428      -0.66700819      -0.13587509       0.04066059       0.01278848      -0.00412060
H        1.11524504      -1.21664716      -1.33362771      -0.02912251       0.02553707       0.03290105
H        0.59724822       0.58834985      -1.29106145       0.13890178      -0.25893445      -0.04644033
5
Properties=species:S:1:pos:R:3:forces:R:3 energy=-39.89805382343768 pbc="F F F"
C        0.00000000       0.00000000       0.00000000       0.00572306      -0.00287529      -0.03323122
H       -1.53107871      -0.99542163       0.03845671       0.03825108      -0.03969740       0.02388495
H       -0.96379824      -1.79505410       0.48084832      -0.02900975       0.05847691      -0.03191786
H       -0.15623051       2.91322862      -0.58708245      -0.00298174      -0.01686715       0.00281714
H        0.61570177      -0.19470855      -2.34958488      -0.01198227       0.00095982       0.03844941
5
Properties=species:S:1:pos:R:3:forces:R:3 energy=-39.92164593401787 pbc="F F F"
C        0.00000000       0.00000000       0.00000000       0.04408550       0.00121302      -0.03575970
H        1.70561632       0.37952532      -0.97268426      -0.00376914      -0.03503822       0.02555418
H        0.93824829       0.76885895      -1.00557748      -0.00204587       0.02881555      -0.00071367
H        0.91324287       1.96677159      -1.03223470      -0.02546823      -0.01324421       0.00029147
H        0.92248550      -1.96038052      -1.63730896      -0.01280790       0.01825208       0.01062653
5
Properties=species:S:1:pos:R:3:forces:R:3 energy=-39.902321860860305 pbc="F F F"
C        0.00000000       0.00000000       0.00000000       0.05561669       0.00333339       0.01603951
H        1.56404756       2.17698491      -0.84420638      -0.01426836      -0.02311342       0.00731744
H        1.46644915       0.46517466       2.55341899      -0.01017331      -0.00415160      -0.01994778
H        1.92044822      -0.58394470       0.31443345      -0.04772863      -0.02032351      -0.00818500
H        1.18365365      -1.26660826       0.06452610       0.01655421       0.04425092       0.00477892
5
Properties=species:S:1:pos:R:3:forces:R:3 energy=-39.99300407310366 pbc="F F F"
C        0.00000000       0.00000000       0.00000000       0.00857156      -0.05908868      -0.04856171
H       -0.25634597       0.24185635      -2.41803429       0.00289162      -0.00388535       0.04020374
H       -1.93758117      -1.57135983       0.45342120       0.01780111       0.04310248       0.00719257
H       -1.67308043      -0.74369676       0.66098139      -0.00746295      -0.03488753      -0.01157547
H        0.76228660      -1.80363670      -0.39857359      -0.02179909       0.05476181       0.01273951
5
Properties=species:S:1:pos:R:3:forces:R:3 energy=-39.97258701170419 pbc="F F F"
C        0.00000000       0.00000000       0.00000000      -0.06274337      -0.00817816      -0.00711904
H       -1.76948200       0.26975024       0.65763709       0.06907886      -0.01632342      -0.01160428
H       -1.15846727       0.82369782      -1.69278130       0.03659559      -0.01200957       0.02993877
H        0.81960389      -2.28688382      -0.88079827      -0.01341022       0.03015661       0.01269865
H        0.93189177       0.20374864       0.72218642      -0.02951650       0.00635110      -0.02391272
5
Properties=species:S:1:pos:R:3:forces:R:3 energy=-39.89345875566582 pbc="F F F"
C        0.00000000       0.00000000       0.00000000      -0.02787004      -0.03208725      -0.05386523
H       -0.22101387      -1.30499057       1.78006712       0.00521544       0.02251632      -0.03338366
H        2.53430985       1.31497735       0.57120662      -0.01216881      -0.01190078      -0.00511144
H        0.25996273       0.37689184       0.92887800       0.03812984       0.04674665       0.11609084
H       -0.35295081       1.69961925       1.44172864      -0.00331010      -0.02527890      -0.02373346
5
Properties=species:S:1:pos:R:3:forces:R:3 energy=-39.86442139826683 pbc="F F F"
C        0.00000000       0.00000000       0.00000000       0.22348649      -0.06608280       0.25231787
H       -0.65642016       0.52333424       2.15312073      -0.01519186       0.00569883      -0.05475231
H        2.13023200       1.08491158       1.62701528      -0.00817059      -0.00080815      -0.01396652
H       -1.56272872       1.45465476       0.84311984       0.03038457      -0.02653243       0.01717872
H       -0.64676309       0.20875796      -0.56216608      -0.23051130       0.08772451      -0.20077945
5
Properties=species:S:1:pos:R:3:forces:R:3 energy=-39.87237174064359 pbc="F F F"
C        0.00000000       0.00000000       0.00000000      -0.03079297       0.03530394      -0.00666076
H       -1.03276742       1.32559664       0.39999386       0.03502761      -0.06414530      -0.00065213
H        0.16053430       1.08975607      -2.11810422      -0.00280962      -0.02439193       0.02652608
H       -2.30460590      -0.64348555       0.36390812       0.03115558       0.00949998      -0.00831970
H        0.90495397      -1.73988530       0.52345922      -0.03257983       0.04372800      -0.01089515
5
Properties=species:S:1:pos:R:3:forces:R:3 energy=-39.890173820931395 pbc="F F F"
C        0.00000000       0.00000000       0.00000000      -0.02142484       0.02610174       0.02467788
H       -0.76452468      -1.66693784       1.22463608       0.00959206       0.06646039       0.01104010
H        2.31518101       1.33725322       0.60483281      -0.02316459      -0.01330547      -0.00217452
H       -1.39400492       1.66522688       0.03684052       0.03026076      -0.03947349       0.00425360
H       -0.71195499      -0.35557929       1.82677378       0.00473796      -0.03978392      -0.03779736
5
Properties=species:S:1:pos:R:3:forces:R:3 energy=-39.925087433551674 pbc="F F F"
C        0.00000000       0.00000000       0.00000000       0.52494815      -0.24055358       0.26083487
H       -0.61263468       0.26497112      -0.37805887      -0.54973063       0.19456559      -0.26751190
H        0.34348414      -0.37735680      -1.55385934       0.00861790       0.00450468       0.08050281
H       -0.78165718       1.66302542      -1.25159010       0.02205579       0.00002512       0.01786949
H        0.21269319      -0.57404256       1.48812998      -0.00589247       0.04145194      -0.09170125
5
Properties=species:S:1:pos:R:3:forces:R:3 energy=-39.98204489758561 pbc="F F F"
C        0.00000000       0.00000000       0.00000000       0.04044467       0.07206996      -0.00906823
H        0.21343599      -1.34347464      -2.44096159       0.04794964       0.01379932       0.01838330
H        1.03744256       1.23746469      -0.90786054      -0.03714413      -0.04525542       0.03200188
H        0.22139019       1.97761546       1.76637946      -0.00345773      -0.02444799      -0.02002109
H        0.99410267      -1.08252623      -2.11232895      -0.04779120      -0.01616397      -0.02129442
5
Properties=species:S:1:pos:R:3:forces:R:3 energy=-40.00791024662939 pbc="F F F"
C        0.00000000       0.00000000       0.00000000      -0.02253352       0.09078355       0.00426792
H       -1.99626213       1.33789822      -0.21200462       0.03143274      -0.02484019       0.00283672
H        0.35532076       1.72893367       0.20371261      -0.00969755      -0.06757232      -0.00605016
H       -1.03151589      -1.76522480       2.12267903       0.03455562       0.04173796       0.02626045
H       -0.50981150      -1.14600578       2.53834653      -0.03375707      -0.04011196      -0.02731199
5
Properties=species:S:1:pos:R:3:forces:R:3 energy=-40.06059581684923 pbc="F F F"
C        0.00000000       0.00000000       0.00000000       0.02074127       0.00036045       0.01500364
H       -2.75737379       0.34836834      -0.88211182       0.01316248       0.01341013      -0.00800246
H        0.51954917       1.02793809       0.40814064      -0.00769988      -0.02683198      -0.00311415
H        1.12438282      -2.06367244       1.27357293      -0.01082762       0.02590254      -0.01192159
H       -2.18210371       0.83157054      -1.17465522      -0.01537429      -0.01284167       0.00803204
5
Properties=species:S:1:pos:R:3:forces:R:3 energy=-39.94470923633493 pbc="F F F"
C        0.00000000       0.00000000       0.00000000      -0.05782293      -0.13443124       0.29152306
H       -0.10211936       0.57105138      -0.72421704      -0.17831184       0.24122981      -0.13490441
H        0.58585907       2.63705518       1.18971226       0.02970686      -0.05989456       0.02395786
H        0.50275988       0.09818666      -0.80437812       0.23974641      -0.09971885      -0.14758566
H        1.23636586       1.33897738       1.76507586      -0.03332072       0.05281286      -0.03299450
5
Properties=species:S:1:pos:R:3:forces:R:3 energy=-39.90794442050831 pbc="F F F"
C        0.00000000       0.00000000       0.00000000       0.05771412       0.00495645       0.01576013
H        1.88661529       0.35046378       1.38979977      -0.03294738      -0.00576980      -0.02514330
H       -2.12739741       0.54395999      -1.94705061      -0.02562533      -0.02513584       0.06267262
H       -2.46459841       0.20787969      -1.10963753       0.02486814       0.02571368      -0.06278010
H        2.68947964      -0.00678083      -0.95735167      -0.02400988       0.00023465       0.00949314
5
Properties=species:S:1:pos:R:3:forces:R:3 energy=-39.84055080849569 pbc="F F F"
C        0.00000000       0.00000000       0.00000000      -0.02618606      -0.04217645      -0.00471776
H        1.92120808      -0.92668975      -0.20612007      -0.04098444       0.00720765       0.00254658
H       -1.08347852      -1.57486778       0.87594305       0.01372710       0.03805749      -0.00851740
H       -2.22006718       0.06242180       0.25461313       0.04037564      -0.02479422      -0.00660213
H       -1.19469223      -1.31299609      -1.73209748       0.01306723       0.02170741       0.01729183
5
Properties=species:S:1:pos:R:3:forces:R:3 energy=-39.87370017238801 pbc="F F F"
C        0.00000000       0.00000000       0.00000000       0.03798793      -0.04779867      -0.03579557
H       -0.45936097      -2.26550533       1.10515585       0.00757990       0.02558099      -0.01474206
H       -0.39456643      -1.51661897      -2.04857336       0.00603668       0.01243003       0.02444724
H        2.31770334      -0.23645512       1.65637769      -0.01632890      -0.00241695      -0.01244711
H        0.91834061      -0.32372312      -0.98402105      -0.03527359       0.01220812       0.03854073
5
Properties=species:S:1:pos:R:3:forces:R:3 energy=-39.94322738863477 pbc="F F F"
C        0.00000000       0.00000000       0.00000000       0.03894336      -0.07142671       0.00153444
H        1.12323902      -0.94803969       0.20520700      -0.05100598       0.04501159       0.00156628
H       -2.38535109      -0.49389035       0.60302148       0.04249744       0.02199728       0.06075602
H       -1.72518587      -0.03399031       1.81366225      -0.03005040      -0.02178787      -0.05960030
H       -0.23925760      -2.67541932      -0.04087202      -0.00038091       0.02619898      -0.00425458
5
Properties=species:S:1:pos:R:3:forces:R:3 energy=-40.00020965185361 pbc="F F F"
C        0.00000000       0.00000000       0.00000000       0.02353398       0.11198076      -0.08538987
H       -0.08637411      -0.65709007       0.73415535      -0.02519761      -0.10514108       0.07107844
H        0.98614665      -0.60199212       2.03235403      -0.00058549       0.01320165      -0.02505438
H        0.36238644       0.44966048      -2.87130855      -0.00477247      -0.00539126       0.04200311
H        0.17443704       0.40269189      -1.43869496       0.00702024      -0.01465336      -0.00263897
5
Properties=species:S:1:pos:R:3:forces:R:3 energy=-39.914567213561604 pbc="F F F"
C        0.00000000       0.00000000       0.00000000      -0.01344587       0.03102730      -0.02074715
H       -1.32447856       1.52702467       1.58268558       0.01845353      -0.01775125      -0.02326509
H        1.15848870       1.06926355      -2.03922575      -0.01158793      -0.00887531       0.02899399
H       -1.40414142       0.20827788      -2.09678258       0.03551412       0.00867774       0.04799341
H       -0.66096876       0.46660807      -1.39771901      -0.02893127      -0.01307607      -0.03297531
5
Properties=species:S:1:pos:R:3:forces:R:3 energy=-40.11372893011596 pbc="F F F"
C        0.00000000       0.00000000       0.00000000      -0.04714307       0.01395143      -0.07757939
H       -0.57726136       0.49279509      -1.39143207       0.03489069      -0.01109645       0.05604999
H       -0.79579101      -0.81279977      -0.32946807       0.01074752       0.00081030       0.01948410
H       -2.50556048       1.52573842       0.18663764       0.06643773       0.05065093      -0.01987379
H       -1.54948498       2.26105385      -0.11790022      -0.06493291      -0.05431238       0.02192238
5
Properties=species:S:1:pos:R:3:forces:R:3 energy=-39.93086493161992 pbc="F F F"
C        0.00000000       0.00000000       0.00000000       0.06226079      -0.04439802      -0.10189538
H        1.05030471      -1.59454567      -0.65163420      -0.03240880       0.04403326       0.02231804
H       -1.32493371      -0.42318464       1.75137469       0.01676635      -0.00622815      -0.02074367
H        2.46300878      -0.01465186       1.38149390      -0.02064543      -0.00231602      -0.01103908
H       -0.25259642      -0.06387206       1.01458404      -0.02597876       0.00891308       0.11136209
5
Properties=species:S:1:pos:R:3:forces:R:3 energy=-39.97749679027914 pbc="F F F"
C        0.00000000       0.00000000       0.00000000      -0.00268868       0.02905886       0.03160051
H       -0.27325669       0.34862595       1.23076235       0.01152057      -0.01979035      -0.04623700
H        2.18025014       1.01978565       0.89589702      -0.03338496       0.01265212      -0.04912063
H        1.45370483       1.36175070      -0.26390635       0.01324234      -0.03620818       0.05364599
H       -1.29798093      -2.31536976      -0.91694697       0.01131080       0.01428589       0.01010947
5
Properties=species:S:1:pos:R:3:forces:R:3 energy=-39.928425063604735 pbc="F F F"
C        0.00000000       0.00000000       0.00000000       0.02707379       0.00852239       0.02327520